REMARK SMILES CCC1NC(N)NC(N)C1C1CCC(Cl)CC1
REMARK SMILES IDX 7 1 5 2 8 3 10 4 3 5 4 6 6 9 9 12 11 15 12 16 17 17 13 18
REMARK SMILES IDX 16 19 14 20 15 21 2 22 1 23
REMARK H PARENT 7 7 4 8 6 10 6 11 9 13 9 14
ROOT
ATOM      1  N1  CP6 B 704       2.471  -1.509  -0.244  1.00  0.00    -0.274 NA
ATOM      2  C2  CP6 B 704       2.942  -0.583   0.730  1.00  0.00    +0.192 C 
ATOM      3  C3  CP6 B 704       1.026  -1.522  -0.231  1.00  0.00    +0.125 C 
ATOM      4  C4  CP6 B 704       0.444  -0.131  -0.598  1.00  0.00    +0.041 C 
ATOM      5  C5  CP6 B 704       1.123   0.923   0.336  1.00  0.00    +0.062 C 
ATOM      6  N6  CP6 B 704       2.580   0.731   0.331  1.00  0.00    -0.287 NA
ATOM      7  H   UNL     1       2.778  -1.176  -1.148  1.00  0.00    +0.127 HD
ATOM      8  H   UNL     1       2.977   0.951  -0.572  1.00  0.00    +0.125 HD
ENDROOT
BRANCH   2   9
ATOM      9  N14 CP6 B 704       4.356  -0.652   0.640  1.00  0.00    -0.304 NA
ATOM     10  H   UNL     1       4.608  -1.624   0.797  1.00  0.00    +0.121 HD
ATOM     11  H   UNL     1       4.647  -0.439  -0.304  1.00  0.00    +0.121 HD
ENDBRANCH   2   9
BRANCH   3  12
ATOM     12  N13 CP6 B 704       0.725  -2.559  -1.187  1.00  0.00    -0.316 NA
ATOM     13  H   UNL     1       1.072  -2.287  -2.102  1.00  0.00    +0.120 HD
ATOM     14  H   UNL     1       1.281  -3.369  -0.917  1.00  0.00    +0.120 HD
ENDBRANCH   3  12
BRANCH   4  15
ATOM     15  C7  CP6 B 704      -1.118  -0.033  -0.576  1.00  0.00    -0.004 C 
ATOM     16  C8  CP6 B 704      -1.832  -0.970  -1.560  1.00  0.00    +0.005 C 
ATOM     17  C12 CP6 B 704      -1.736  -0.165   0.833  1.00  0.00    +0.005 C 
ATOM     18  C9  CP6 B 704      -3.322  -0.628  -1.704  1.00  0.00    +0.020 C 
ATOM     19  C11 CP6 B 704      -3.201  -0.622   0.830  1.00  0.00    +0.020 C 
ATOM     20  C10 CP6 B 704      -3.983  -0.164  -0.399  1.00  0.00    +0.081 C 
ATOM     21 CL1  CP6 B 704      -4.157   1.623  -0.382  1.00  0.00    -0.123 Cl
ENDBRANCH   4  15
BRANCH   5  22
ATOM     22  C15 CP6 B 704       0.812   2.378  -0.076  1.00  0.00    +0.016 C 
ATOM     23  C16 CP6 B 704       1.469   3.419   0.827  1.00  0.00    +0.005 C 
ENDBRANCH   5  22
TORSDOF 4
