REMARK SMILES CCC1NC(N)NC(N)C1C1CCC(Cl)CC1
REMARK SMILES IDX 7 1 5 2 8 3 10 4 3 5 4 6 6 9 9 12 11 15 12 16 17 17 13 18
REMARK SMILES IDX 16 19 14 20 15 21 2 22 1 23
REMARK H PARENT 7 7 4 8 6 10 6 11 9 13 9 14
ROOT
ATOM      1  N1  CP6 B 704       2.470  -1.509  -0.276  1.00  0.00    -0.274 NA
ATOM      2  C2  CP6 B 704       2.951  -0.586   0.697  1.00  0.00     0.192 C 
ATOM      3  C3  CP6 B 704       1.025  -1.522  -0.247  1.00  0.00     0.125 C 
ATOM      4  C4  CP6 B 704       0.440  -0.129  -0.603  1.00  0.00     0.041 C 
ATOM      5  C5  CP6 B 704       1.129   0.921   0.327  1.00  0.00     0.062 C 
ATOM      6  N6  CP6 B 704       2.585   0.730   0.306  1.00  0.00    -0.287 NA
ATOM      7  H   UNL     1       2.767  -1.173  -1.181  1.00  0.00     0.127 HD
ATOM      8  H   UNL     1       2.972   0.953  -0.601  1.00  0.00     0.125 HD
ENDROOT
BRANCH   2   9
ATOM      9  N14 CP6 B 704       4.365  -0.654   0.591  1.00  0.00    -0.304 NA
ATOM     10  H   UNL     1       4.618  -1.627   0.742  1.00  0.00     0.121 HD
ATOM     11  H   UNL     1       4.645  -0.438  -0.355  1.00  0.00     0.121 HD
ENDBRANCH   2   9
BRANCH   3  12
ATOM     12  N13 CP6 B 704       0.714  -2.556  -1.203  1.00  0.00    -0.316 NA
ATOM     13  H   UNL     1       1.051  -2.281  -2.120  1.00  0.00     0.120 HD
ATOM     14  H   UNL     1       1.273  -3.367  -0.941  1.00  0.00     0.120 HD
ENDBRANCH   3  12
BRANCH   4  15
ATOM     15  C7  CP6 B 704      -1.123  -0.031  -0.564  1.00  0.00    -0.004 C 
ATOM     16  C8  CP6 B 704      -1.847  -0.966  -1.543  1.00  0.00     0.005 C 
ATOM     17  C12 CP6 B 704      -1.725  -0.167   0.851  1.00  0.00     0.005 C 
ATOM     18  C9  CP6 B 704      -3.338  -0.624  -1.670  1.00  0.00     0.020 C 
ATOM     19  C11 CP6 B 704      -3.190  -0.625   0.862  1.00  0.00     0.020 C 
ATOM     20  C10 CP6 B 704      -3.985  -0.163  -0.357  1.00  0.00     0.081 C 
ATOM     21 CL1  CP6 B 704      -4.160   1.624  -0.333  1.00  0.00    -0.123 Cl
ENDBRANCH   4  15
BRANCH   5  22
ATOM     22  C15 CP6 B 704       0.813   2.378  -0.077  1.00  0.00     0.016 C 
ATOM     23  C16 CP6 B 704       1.479   3.416   0.822  1.00  0.00     0.005 C 
ENDBRANCH   5  22
TORSDOF 4
